
    -----------------------------------------------------------------------
          Psi4: An Open-Source Ab Initio Electronic Structure Package
                               Psi4 1.7 release

                         Git: Rev {HEAD} 6ce35a5 


    D. G. A. Smith, L. A. Burns, A. C. Simmonett, R. M. Parrish,
    M. C. Schieber, R. Galvelis, P. Kraus, H. Kruse, R. Di Remigio,
    A. Alenaizan, A. M. James, S. Lehtola, J. P. Misiewicz, M. Scheurer,
    R. A. Shaw, J. B. Schriber, Y. Xie, Z. L. Glick, D. A. Sirianni,
    J. S. O'Brien, J. M. Waldrop, A. Kumar, E. G. Hohenstein,
    B. P. Pritchard, B. R. Brooks, H. F. Schaefer III, A. Yu. Sokolov,
    K. Patkowski, A. E. DePrince III, U. Bozkaya, R. A. King,
    F. A. Evangelista, J. M. Turney, T. D. Crawford, C. D. Sherrill,
    J. Chem. Phys. 152(18) 184108 (2020). https://doi.org/10.1063/5.0006002

                            Additional Code Authors
    E. T. Seidl, C. L. Janssen, E. F. Valeev, M. L. Leininger,
    J. F. Gonthier, R. M. Richard, H. R. McAlexander, M. Saitow, X. Wang,
    P. Verma, M. H. Lechner, A. Jiang, S. Behnle, A. G. Heide,
    M. F. Herbst, and D. L. Poole

             Previous Authors, Complete List of Code Contributors,
                       and Citations for Specific Modules
    https://github.com/psi4/psi4/blob/master/codemeta.json
    https://github.com/psi4/psi4/graphs/contributors
    http://psicode.org/psi4manual/master/introduction.html#citing-psifour

    -----------------------------------------------------------------------


    Psi4 started on: Friday, 06 January 2023 11:08AM

    Process ID: 189911
    Host:       ch202
    PSIDATADIR: /loctmp/dam63759/psi4conda/share/psi4
    Memory:     500.0 MiB
    Threads:    1
    
  ==> Input File <==

--------------------------------------------------------------------------
import psi4
import numpy as np 

h2o = psi4.geometry("""
symmetry c1
O
H 1 0.96
H 1 0.96 2 104.5
""")

set {
    save_jk true
    guess CORE
    basis sto-3g
    DIIS false
    SCF_INITIAL_ACCELERATOR None
}

eng, wfn = psi4.energy("scf", molecule=h2o, return_wfn=True)
E_nuc = h2o.nuclear_repulsion_energy()

j = wfn.jk().J()[0].to_array()
k = wfn.jk().K()[0].to_array()
h = wfn.H().to_array()
c = wfn.Ca_subset("AO", "OCC").to_array()

J = np.array(j)
K = np.array(k)
C = np.array(c)
H = np.array(h)

D = np.dot(C,C.transpose())

E_el = 2*np.trace(np.dot(D, H)) + 2*np.trace(np.dot(D, J)) - np.trace(np.dot(D, K))

print(f"reference: {eng}")
print(f"HF energy: {E_el+E_nuc}")

print(f"{J=}")
print(f"{K=}")
--------------------------------------------------------------------------

Scratch directory: /tmp/

*** tstart() called on ch202
*** at Fri Jan  6 11:08:47 2023

   => Loading Basis Set <=

    Name: STO-3G
    Role: ORBITAL
    Keyword: BASIS
    atoms 1   entry O          line    81 file /loctmp/dam63759/psi4conda/share/psi4/basis/sto-3g.gbs 
    atoms 2-3 entry H          line    19 file /loctmp/dam63759/psi4conda/share/psi4/basis/sto-3g.gbs 


         ---------------------------------------------------------
                                   SCF
               by Justin Turney, Rob Parrish, Andy Simmonett
                          and Daniel G. A. Smith
                              RHF Reference
                        1 Threads,    500 MiB Core
         ---------------------------------------------------------

  ==> Geometry <==

    Molecular point group: c1
    Full point group: C2v

    Geometry (in Angstrom), charge = 0, multiplicity = 1:

       Center              X                  Y                   Z               Mass       
    ------------   -----------------  -----------------  -----------------  -----------------
         O            0.000000000000     0.000000000000    -0.065775570547    15.994914619570
         H            0.000000000000    -0.759061990794     0.521953018286     1.007825032230
         H            0.000000000000     0.759061990794     0.521953018286     1.007825032230

  Running in c1 symmetry.

  Rotational constants: A =     27.26297  B =     14.51533  C =      9.47217 [cm^-1]
  Rotational constants: A = 817323.21126  B = 435158.60141  C = 283968.37536 [MHz]
  Nuclear repulsion =    9.168193296424349

  Charge       = 0
  Multiplicity = 1
  Electrons    = 10
  Nalpha       = 5
  Nbeta        = 5

  ==> Algorithm <==

  SCF Algorithm Type is DF.
  DIIS disabled.
  MOM disabled.
  Fractional occupation disabled.
  Guess Type is CORE.
  Energy threshold   = 1.00e-06
  Density threshold  = 1.00e-06
  Integral threshold = 1.00e-12

  ==> Primary Basis <==

  Basis Set: STO-3G
    Blend: STO-3G
    Number of shells: 5
    Number of basis functions: 7
    Number of Cartesian functions: 7
    Spherical Harmonics?: true
    Max angular momentum: 1

   => Loading Basis Set <=

    Name: (STO-3G AUX)
    Role: JKFIT
    Keyword: DF_BASIS_SCF
    atoms 1   entry O          line   318 file /loctmp/dam63759/psi4conda/share/psi4/basis/def2-universal-jkfit.gbs 
    atoms 2-3 entry H          line    18 file /loctmp/dam63759/psi4conda/share/psi4/basis/def2-universal-jkfit.gbs 

  ==> Integral Setup <==

  DFHelper Memory: AOs need 0.000 GiB; user supplied 0.366 GiB. Using in-core AOs.

  ==> MemDFJK: Density-Fitted J/K Matrices <==

    J tasked:                   Yes
    K tasked:                   Yes
    wK tasked:                   No
    OpenMP threads:               1
    Memory [MiB]:               375
    Algorithm:                 Core
    Schwarz Cutoff:           1E-12
    Mask sparsity (%):       0.0000
    Fitting Condition:        1E-10

   => Auxiliary Basis Set <=

  Basis Set: (STO-3G AUX)
    Blend: DEF2-UNIVERSAL-JKFIT
    Number of shells: 37
    Number of basis functions: 113
    Number of Cartesian functions: 133
    Spherical Harmonics?: true
    Max angular momentum: 4

  Minimum eigenvalue in the overlap matrix is 3.4405295587E-01.
  Reciprocal condition number of the overlap matrix is 1.7851413927E-01.
    Using symmetric orthogonalization.

  ==> Pre-Iterations <==

  SCF Guess: Core (One-Electron) Hamiltonian.

   -------------------------------------------------------
    Irrep   Nso     Nmo     Nalpha   Nbeta   Ndocc  Nsocc
   -------------------------------------------------------
     A          7       7       5       5       5       0
   -------------------------------------------------------
    Total       7       7       5       5       5       0
   -------------------------------------------------------

  ==> Iterations <==

                           Total Energy        Delta E     RMS |[F,P]|

   @DF-RHF iter   1:   -73.23391796302916   -7.32339e+01   1.48428e-01 
   @DF-RHF iter   2:   -74.94553765265555   -1.71162e+00   2.08166e-02 
   @DF-RHF iter   3:   -74.96252591202278   -1.69883e-02   4.34864e-03 
   @DF-RHF iter   4:   -74.96328659116284   -7.60679e-04   1.30167e-03 
   @DF-RHF iter   5:   -74.96338515646114   -9.85653e-05   5.32891e-04 
   @DF-RHF iter   6:   -74.96340211817279   -1.69617e-05   2.24800e-04 
   @DF-RHF iter   7:   -74.96340522774892   -3.10958e-06   9.68938e-05 
   @DF-RHF iter   8:   -74.96340580911978   -5.81371e-07   4.19693e-05 
   @DF-RHF iter   9:   -74.96340591847412   -1.09354e-07   1.82125e-05 
   @DF-RHF iter  10:   -74.96340593908182   -2.06077e-08   7.90744e-06 
   @DF-RHF iter  11:   -74.96340594296764   -3.88582e-09   3.43383e-06 
   @DF-RHF iter  12:   -74.96340594370045   -7.32811e-10   1.49123e-06 
   @DF-RHF iter  13:   -74.96340594383859   -1.38144e-10   6.47619e-07 
  Energy and wave function converged.


  ==> Post-Iterations <==

    Orbital Energies [Eh]
    ---------------------

    Doubly Occupied:                                                      

       1A    -20.242317     2A     -1.267014     3A     -0.616422  
       4A     -0.452702     5A     -0.391073  

    Virtual:                                                              

       6A      0.602951     7A      0.739064  

    Final Occupation by Irrep:
              A 
    DOCC [     5 ]
    NA   [     5 ]
    NB   [     5 ]

  @DF-RHF Final Energy:   -74.96340594383859

   => Energetics <=

    Nuclear Repulsion Energy =              9.1681932964243487
    One-Electron Energy =                -122.3241441816617794
    Two-Electron Energy =                  38.1925449413988218
    Total Energy =                        -74.9634059438386089

Computation Completed


Properties will be evaluated at   0.000000,   0.000000,   0.000000 [a0]

Properties computed using the SCF density matrix


 Multipole Moments:

 ------------------------------------------------------------------------------------
     Multipole            Electronic (a.u.)      Nuclear  (a.u.)        Total (a.u.)
 ------------------------------------------------------------------------------------

 L = 1.  Multiply by 2.5417464519 to convert [e a0] to [Debye]
 Dipole X            :          0.0000000            0.0000000            0.0000000
 Dipole Y            :         -0.0000000            0.0000000           -0.0000000
 Dipole Z            :         -0.3008326            0.9783140            0.6774814
 Magnitude           :                                                    0.6774814

 ------------------------------------------------------------------------------------

*** tstop() called on ch202 at Fri Jan  6 11:08:47 2023
Module time:
	user time   =       0.10 seconds =       0.00 minutes
	system time =       0.01 seconds =       0.00 minutes
	total time  =          0 seconds =       0.00 minutes
Total time:
	user time   =       0.10 seconds =       0.00 minutes
	system time =       0.01 seconds =       0.00 minutes
	total time  =          0 seconds =       0.00 minutes

    Psi4 stopped on: Friday, 06 January 2023 11:08AM
    Psi4 wall time for execution: 0:00:00.17

*** Psi4 exiting successfully. Buy a developer a beer!
